file 16390500 1591987984                                        
version 2
run General-0-20200612-19:51:21-13860
attr configname General
attr datetime 20200612-19:51:21
attr experiment General
attr inifile omnetpp.ini
attr iterationvars ""
attr iterationvarsf ""
attr measurement ""
attr network EvolutionOfNodes_EONs
attr processid 13860
attr repetition 0
attr replication #0
attr resultdir results
attr runnumber 0
attr seedset 0

vector 0 EvolutionOfNodes_EONs.node[5] HopCount ETV
vector 1 EvolutionOfNodes_EONs.node[0] HopCount ETV
vector 2 EvolutionOfNodes_EONs.node[3] HopCount ETV
vector 3 EvolutionOfNodes_EONs.node[4] HopCount ETV
vector 4 EvolutionOfNodes_EONs.node[1] HopCount ETV
vector 5 EvolutionOfNodes_EONs.node[2] HopCount ETV
5	703 684569 145 1887973 14.4 188797.2 32768 1 125 410452 9935982
3	685272 672615 77 1893819 7.6 189381.8 32768 1 46 126610 1145738
2	1357887 698098 74 1900304 7.3 190030.3 32768 1 134 416884 10349988
4	2055985 686038 140 1903160 13.9 190315.9 32768 1 48 124172 1114224
1	2742023 685409 29 1909507 2.8 190950.6 32768 1 173 416474 10316652
0	3427432 698012 18 1925470 1.7 192546.9 32768 1 148 410846 9962652
5	4125444 723040 1888023 3780605 188802.2 378060.4 32768 1 177 412305 10098363
2	4848484 736330 1900354 3788734 190035.3 378873.3 32768 1 141 413388 10058462
3	5584814 710900 1893851 3794593 189385 379459.2 32768 1 52 124145 1113039
4	6295714 724304 1903164 3810670 190316.3 381066.9 32768 1 48 123846 1099382
1	7020018 723206 1909569 3822587 190956.8 382258.6 32768 1 118 412466 10127824
0	7743224 736219 1925522 3829124 192552.1 382912.3 32768 1 144 413251 10075937
5	8479443 723273 3780621 5676923 378062 567692.2 32768 1 151 414382 10181040
2	9202716 736149 3788764 5687146 378876.3 568714.5 32768 1 119 411438 10053156
3	9938865 711224 3794657 5698493 379465.6 569849.2 32768 1 56 124264 1114174
4	10650089 724356 3810800 5710816 381079.9 571081.5 32768 1 68 125128 1148900
1	11374445 722873 3822695 5724585 382269.4 572458.4 32768 1 132 410074 9901854
0	12097318 736238 3829196 5730554 382919.5 573055.3 32768 1 121 414294 10169008
0	12833556 585697 5730570 7247616 573056.9 724761.5 26069 1 135 328094 7949380
1	13419253 579809 5724597 7247549 572459.6 724754.8 26275 1 195 328374 8061288
2	13999062 608532 5687210 7247608 568720.9 724760.7 27092 1 131 339419 8288585
3	14607594 587700 5698571 7247583 569857 724758.2 27080 1 56 103550 938968
4	15195294 594801 5710854 7247566 571085.3 724756.5 26913 1 47 100926 896808
5	15790095 600403 5677037 7247587 567703.6 724758.6 27221 1 138 342833 8279623

